name,logS,smiles
Caproaldehyde,-1.3,CCCCCC=O
captafol,-5.4,O=C1C2CC=CCC2C(=O)N1SC(Cl)(Cl)C(Cl)Cl
Carbanilide,-3.15,O=C(Nc1ccccc1)Nc1ccccc1
Carbaryl,-3.224,CNC(=O)Oc1cccc2ccccc12
Carbetamide,-1.83,CCNC(=O)C(C)OC(=O)Nc1ccccc1
Carbofuran,-2.8,CNC(=O)Oc1cccc2c1OC(C)(C)C2
Carbophenthion,-5.736,CCOP(=S)(OCC)SCSc1ccc(Cl)cc1
Carboxin,-3.14,CC1=C(C(=O)Nc2ccccc2)SCCO1
Carbromal,-2.68,CCC(Br)(CC)C(=O)NC(N)=O
Carvacrol,-2.08,Cc1ccc(C(C)C)cc1O
Carvone,-2.06,C=C(C)C1CC=C(C)C(=O)C1
chloralose,-1.84,OCC(O)C1OC2OC(C(Cl)(Cl)Cl)OC2C1O
Chloramphenicol,-2.111,O=C(NC(CO)C(O)c1ccc([N+](=O)[O-])cc1)C(Cl)Cl
Chlorazine,-4.411,CCN(CC)c1nc(Cl)nc(N(CC)CC)n1
Chlorbromuron,-3.924,CON(C)C(=O)Nc1ccc(Br)c(Cl)c1
Chlorbufam,-2.617,C#CC(C)OC(=O)Nc1cccc(Cl)c1
Chlordane,-6.86,ClC1=C(Cl)C2(Cl)C3C(Cl)C(Cl)CC3C1(Cl)C2(Cl)Cl
Chlordene,-5.64,ClC1=C(Cl)C2(Cl)C3CC=CC3C1(Cl)C2(Cl)Cl
chlordimeform,-2.86,Cc1cc(Cl)ccc1N=CN(C)C
Chlorimuron-ethyl (ph 7),-4.576,CCOC(=O)c1ccccc1S(=O)(=O)NN(C=O)c1nc(Cl)cc(OC)n1
chloroacetamide,-0.02,NC(=O)CCl
Chloroacetonitrile,-0.092,N#CCCl
Chlorobenzene,-2.38,Clc1ccccc1
Chlorodibromethane,-1.9,ClC(Br)Br
Chloroethane,-1.06,CCCl
Chloroethylene,-1.75,C=CCl
Chloropham,-3.38,CC(C)OC(=O)Nc1cccc(Cl)c1
Chloropicrin,-2,O=[N+]([O-])C(Cl)(Cl)Cl
chloropropylate,-4.53,CC(C)OC(=O)C(O)(c1ccc(Cl)cc1)c1cccc(Cl)c1
Chlorothalonil,-5.64,N#Cc1c(Cl)c(Cl)c(Cl)c(C#N)c1Cl
chlorothiazide,-3.05,NS(=O)(=O)c1cc2c(cc1Cl)N=CNS2(=O)=O
Chlorotoluron,-3.46,Cc1ccc(NC(=O)N(C)C)cc1Cl
Chloroxuron,-4.89,CN(C)C(=O)Nc1ccc(Oc2ccc(Cl)cc2)cc1
chlorpyrifos,-5.67,CCOP(=S)(OCC)Oc1nc(Cl)c(Cl)cc1Cl
chlorquinox,-5.43,Clc1c(Cl)c(Cl)c2nccnc2c1Cl
Chlorthalidone,-3.451,NS(=O)(=O)c1cc(C2(O)NC(=O)c3ccccc32)ccc1Cl
Chlortoluron,-3.483,Cc1ccc(NC(=O)N(C)C)cc1Cl
Chlorzoxazone,-2.831,O=c1[nH]c2cc(Cl)ccc2o1
Cholanthrene,-7.85,c1cc2c3c(c4ccc5ccccc5c4cc3c1)CC2
Chrysene,-8.057,c1ccc2c(c1)ccc1c3ccccc3ccc21
"cis 1,2-Dichloroethylene",-1.3,Cl/C=C\Cl
"cis-1,2-Dimethylcyclohexane",-4.3,CC1CCCCC1C
cis-2-Pentene,-2.54,C/C=C\CC
citral,-2.06,CC(C)=CCCC(C)=CC=O
Clomazone,-2.338,CC1(C)CON(Cc2ccccc2Cl)C1=O
Clonazepam,-3.499,O=C1CN=C(c2ccccc2Cl)c2cc([N+](=O)[O-])ccc2N1
Coronene,-9.332,c1cc2ccc3ccc4ccc5ccc6ccc1c1c2c3c4c5c61
Cortisone,-3.11,CC12CCC(=O)C=C1CCC1C2C(=O)CC2(C)C1CCC2(O)C(=O)CO
cortisone acetate,-4.21,CC(=O)OCC(=O)C1(O)CCC2C3CCC4=CC(=O)CCC4(C)C3C(=O)CC21C
Coumachlor,-5.839,CC(=O)CC(c1ccc(Cl)cc1)c1c(O)c2ccccc2oc1=O
Coumaphos,-5.382,CCOP(=S)(OCC)Oc1ccc2oc(=O)c(Cl)c(C)c2c1
Coumatetralyl,-2.84,O=c1oc2ccccc2c(O)c1C1CCCc2ccccc21
Cyanazine,-3.15,CCNc1nc(Cl)nc(NC(C)(C)C#N)n1
cycloate,-3.4,CCSC(=O)N(CC)C1CCCCC1
cyclobarbital,-2.17,CCC1(C2=CCCCC2)C(=O)NC(=O)NC1=O
Cyclobutyl-5-spirobarbituric acid,-1.655,O=C1NC(=O)C2(CCC2)C(=O)N1
Cycloheptane,-3.51,C1CCCCCC1
Cycloheptanol,-0.88,OC1CCCCCC1
Cycloheptene,-3.18,C1=CCCCCC1
Cycloheptyl-5-spirobarbituric acid,-3.168,O=C1NC(=O)C2(CCCCCC2)C(=O)N1
Cyclohexane,-3.1,C1CCCCC1
Cyclohexanol ,-0.44,OC1CCCCC1
Cyclohexanone,-0.6,O=C1CCCCC1
Cyclohexene,-2.59,C1=CCCCC1
cycloheximide,-1.13,CC1CC(C)C(=O)C(C(O)CC2CC(=O)NC(=O)C2)C1
Cyclohexyl-5-spirobarbituric acid,-3.06,O=C1NC(=O)C2(CCCCC2)C(=O)N1
Cyclooctane,-4.15,C1CCCCCCC1
Cyclooctanol,-1.29,OC1CCCCCCC1
Cyclooctyl-5-spirobarbituric acid,-2.982,O=C1NC(=O)C2(CCCCCCC2)C(=O)N1
Cyclopentane ,-2.64,C1CCCC1
Cyclopentene ,-2.1,C1=CCCC1
Cyclopentyl-5-spirobarbituric acid,-2.349,O=C1NC(=O)C2(CCCC2)C(=O)N1
Cyclopropyl-5-spirobarbituric acid,-1.886,O=C1NC(=O)C2(CC2)C(=O)N1
Cycluron,-2.218,CN(C)C(=O)NC1CCCCCCC1
Cyfluthrin,-7.337,CC1(C)C(C=C(Cl)Cl)C1C(=O)OC(C#N)c1ccc(F)c(Oc2ccccc2)c1
Cyhalothrin,-8.176,CC1(C)C(C=C(Cl)C(F)(F)F)C1C(=O)OC(C#N)c1cccc(Oc2ccccc2)c1
Cypermethrin,-8.017,CC1(C)C(C=C(Cl)Cl)C1C(=O)OC(C#N)c1cccc(Oc2ccccc2)c1
cytosine,-1.155,Nc1cc[nH]c(=O)n1
Danazol,-5.507,C#CC1(O)CCC2C3CCC4=Cc5oncc5CC4(C)C3CCC21C
Dapsone,-3.094,Nc1ccc(S(=O)(=O)c2ccc(N)cc2)cc1
DDD,-7.2,Clc1ccc(C(c2ccc(Cl)cc2)C(Cl)Cl)cc1
DDE,-6.9,ClC(Cl)=C(c1ccc(Cl)cc1)c1ccc(Cl)cc1
DDT,-7.15,Clc1ccc(C(c2ccc(Cl)cc2)C(Cl)(Cl)Cl)cc1
Decalin,-5.19,C1CCC2CCCCC2C1
DEF,-5.14,CCCCSP(=O)(SCCCC)SCCCC
Deltamethrin,-8.402,CC1(C)C(C=C(Br)Br)C1C(=O)OC(C#N)c1cccc(Oc2ccccc2)c1
Deoxycorticosterone,-3.45,CC12CCC(=O)C=C1CCC1C2CCC2(C)C(C(=O)CO)CCC12
deoxycorticosterone acetate,-4.63,CC(=O)OCC(=O)C1CCC2C3CCC4=CC(=O)CCC4(C)C3CCC12C
Desmedipham,-4.632,CCOC(=O)Nc1cccc(OC(=O)Nc2ccccc2)c1
dexamethasone acetate,-4.9,CC(=O)OCC(=O)C1(O)C(C)CC2C3CCC4=CC(=O)C=CC4(C)C3(F)C(O)CC21C
D-fenchone,-1.85,CC12CCC(C1)C(C)(C)C2=O
Di(2-ethylhexyl)-phthalate,-6.96,CCCCC(CC)COC(=O)c1ccccc1C(=O)OCC(CC)CCCC
Dialifor,-6.34,CCOP(=S)(OCC)SC(CCl)N1C(=O)c2ccccc2C1=O
Dialifos,-6.34,CCOP(=S)(OCC)SC(CCl)N1C(=O)c2ccccc2C1=O
Diallate,-4.286,CC(C)N(C(=O)SCC(Cl)=CCl)C(C)C
Diazepam,-3.754,CN1C(=O)CN=C(c2ccccc2)c2cc(Cl)ccc21
Diazinon,-3.64,CCOP(=S)(OCC)Oc1cc(C)nc(C(C)C)n1
Dibenzofurane,-4.6,c1ccc2c(c1)oc1ccccc12
Dibenzothiophene,-4.38,c1ccc2c(c1)sc1ccccc12
Dibromomethane,-1.17,BrCBr
Dibutyl ether ,-1.85,CCCCOCCCC
dibutyl sebacate,-3.896,CCCCOC(=O)CCCCCCCCC(=O)OCCCC
dibutylphthalate,-4.4,CCCCOC(=O)c1ccccc1C(=O)OCCCC
Dicapthon,-4.31,COP(=S)(OC)Oc1ccc([N+](=O)[O-])cc1Cl
Dichloromethane,-0.63,ClCCl
Dichlorophen,-3.953,Oc1ccc(Cl)cc1Cc1cc(Cl)ccc1O
Dicofol,-5.666,OC(c1ccc(Cl)cc1)(c1ccc(Cl)cc1)C(Cl)(Cl)Cl
Dieldrin,-6.29,ClC1=C(Cl)C2(Cl)C3C4CC(C5OC45)C3C1(Cl)C2(Cl)Cl
Dienestrol,-4.95,CC=C(C(=CC)c1ccc(O)cc1)c1ccc(O)cc1
Dienochlor,-7.278,ClC1=C(Cl)C(Cl)(C2(Cl)C(Cl)=C(Cl)C(Cl)=C2Cl)C(Cl)=C1Cl
Diethyl ether ,-0.09,CCOCC
Diethyl phthalate ,-2.35,CCOC(=O)c1ccccc1C(=O)OCC
Diethyl sulfide,-1.34,CCSCC
Diethyldisulfide,-2.42,CCSSCC
diethylstilbestrol,-4.07,CCC(=C(CC)c1ccc(O)cc1)c1ccc(O)cc1
Difenoxuron,-4.16,COc1ccc(Oc2ccc(NC(=O)N(C)C)cc2)cc1
difluron,-6.02,O=C(NC(=O)c1c(F)cccc1F)Nc1ccc(Cl)cc1
"Digoxin (L1=41,8mg/mL, L2=68,2mg/mL, Z=40,1mg/mL)",-4.081,CC1OC(OC2C(O)CC(OC3C(O)CC(OC4CCC5(C)C(CCC6C5CC(O)C5(C)C(C7=CC(=O)OC7)CCC65O)C4)OC3C)OC2C)CC(O)C1O
Dihexyl phthalate,-6.144,CCCCCCOC(=O)c1ccccc1C(=O)OCCCCCC
Diiodomethane,-2.34,ICI
diisooctyl phthalate,-6.637,CC(C)CCCCCOC(=O)c1ccccc1C(=O)OCCCCCC(C)C
Diisopropyl ether ,-1.1,CC(C)OC(C)C
Diisopropylsulfide,-2.24,CC(C)SC(C)C
Dimecron,0.523,CCN(CC)C(=O)C(Cl)=CCOP(=O)(OC)OC
Dimefuron,-4.328,CN(C)C(=O)Nc1ccc(-n2nc(C(C)(C)C)oc2=O)c(Cl)c1
dimetan,-0.85,CN(C)C(=O)OC1=CC(=O)CC(C)(C)C1
dimethirimol,-2.24,CCCCc1c(C)nc(N(C)C)nc1O
Dimethoxymethane,0.48,COCOC
Dimethyl phthalate,-1.66,COC(=O)c1ccccc1C(=O)OC
Dimethyl sulfide,-0.45,CSC
Dimethyldisulfide,-1.44,CSSC
Dinitramine,-5.47,CCN(CC)c1c([N+](=O)[O-])cc(C(F)(F)F)c(N)c1[N+](=O)[O-]
Dinoseb,-3.38,CCC(C)c1cc([N+](=O)[O-])cc([N+](=O)[O-])c1O
d-inositol,0.35,OC1C(O)C(O)C(O)C(O)C1O
Di-n-propylsulfide,-2.58,CCCSCCC
dioctyl phthalate,-5.115,CCCCCCCCOC(=O)c1ccccc1C(=O)OCCCCCCCC
Diosgenin,-7.32,CC1COC2CC3(C)C(CC4C5C=C6CC(O)CCC6(C)CC5CCC43C)OC2C1
Dioxacarb,-1.57,CNC(=O)Oc1ccccc1C1OCCO1
diphenamid,-2.98,CN(C)C(=O)C(c1ccccc1)c1ccccc1
Diphenyl ether ,-3.96,c1ccc(Oc2ccccc2)cc1
Diphenylmethane,-4.08,c1ccc(Cc2ccccc2)cc1
Dipropyl ether,-1.62,CCCOCCC
Disulfiram,-4.86,CCN(CC)C(=S)SSC(=S)N(CC)CC
Disulfoton,-4.23,CCOP(=S)(OCC)SCCSCC
Ditalimfos,-3.35,CCOP(=S)(OCC)N1C(=O)c2ccccc2C1=O
Diuron,-3.8,CN(C)C(=O)Nc1ccc(Cl)c(Cl)c1
d-Limonene,-4.26,C=C(C)C1CC=C(C)CC1
DNOC,-1.456,Cc1cc([N+](=O)[O-])cc([N+](=O)[O-])c1O
Dulcin,-2.17,CCOc1ccc(NC(N)=O)cc1
Dyphylline,-0.17,Cn1c(=O)c2c(ncn2CC(O)CO)n(C)c1=O
Eicosane,-8.172,CCCCCCCCCCCCCCCCCCCC
Endrin,-6.18,ClC1=C(Cl)C2(Cl)C3C4CC(C5OC45)C3C1(Cl)C2(Cl)Cl
Epiandrosterone,-4.16,CC12CCC3C(CCC4CC(O)CCC43C)C1CCC2=O
Epitostanol,-5.41,CC12CCC3C(CCC4CC5SC5CC43C)C1CCC2O
Equilenin,-5.24,CC12CCc3c(ccc4cc(O)ccc34)C1CCC2=O
Equilin,-5.282,CC12CCC3C(=CCc4cc(O)ccc43)C1CCC2=O
Eriodictyol,-3.62,O=C1CC(c2ccc(O)c(O)c2)Oc2cc(O)cc(O)c21
Erythritol,0.7,OCC(O)C(O)CO
Estradiol,-5.03,CC12CCC3c4ccc(O)cc4CCC3C1CCC2O
Estragole,-2.92,C=CCc1ccc(OC)cc1
estriol,-4.955,CC12CCC3c4ccc(O)cc4CCC3C1CC(O)C2O
Ethalfluralin,-6.124,C=C(C)CN(CC)c1c([N+](=O)[O-])cc(C(F)(F)F)cc1[N+](=O)[O-]
Ethane,-1.36,CC
Ethanethiol,-0.6,CCS
Ethanol,1.1,CCO
Ethinyl estradiol,-4.3,C#CC1(O)CCC2C3CCc4cc(O)ccc4C3CCC21C
ethiofencarb,-2.09,CCSCc1ccccc1OC(=O)NC
Ethion,-5.54,CCOP(=S)(OCC)SCSP(=S)(OCC)OCC
Ethirimol,-3.028,CCCCc1c(C)nc(NCC)[nH]c1=O
Ethisterone,-5.66,C#CC1(O)CCC2C3CCC4=CC(=O)CCC4(C)C3CCC21C
Ethofumesate,-3.42,CCOC1Oc2ccc(OS(C)(=O)=O)cc2C1(C)C
ethofumesate,-3.42,CCOC1Oc2ccc(OS(C)(=O)=O)cc2C1(C)C
Ethyl acetate,-0.04,CCOC(C)=O
Ethyl benzoate ,-2.32,CCOC(=O)c1ccccc1
Ethyl butyrate,-1.28,CCCCCOC(=O)CC
ethyl cinnamate,-3,CCOC(=O)C=Cc1ccccc1
Ethyl decanoate,-4.1,CCCCCCCCCC(=O)OCC
Ethyl formate,0.15,CCOC=O
Ethyl heptanoate,-2.74,CCCCCCC(=O)OCC
Ethyl hexanoate,-2.35,CCCCCC(=O)OCC
Ethyl nonanoate,-3.8,CCCCCCCCC(=O)OCC
Ethyl octanoate,-3.39,CCCCCCCC(=O)OCC
Ethyl pentanoate,-1.75,CCCOC(=O)CCC
Ethyl propionate,-0.66,CCOC(=O)CC
Ethyl propyl ether,-0.66,CCCOCC
Ethyl vinyl ether,-0.85,C=COCC
Ethylbenzene,-2.77,CCc1ccccc1
Ethylcyclohexane,-4.25,CCC1CCCCC1
Ethylene,-0.4,C=C
Ethyl-p-aminobenzoate,-2.1,CCOC(=O)c1ccc(N)cc1
Ethyl-p-hydroxybenzoate ,-2.35,CCOC(=O)c1ccc(O)cc1
Ethyne,0.29,C#C
Etofenprox,-8.6,CCOc1ccc(C(C)(C)COCc2cccc(Oc3ccccc3)c2)cc1
Etomidate,-4.735,CCOC(=O)c1cncn1C(C)c1ccccc1
"Etoposide (148-167,25mg/ml)",-3.571,COc1cc(C2c3cc4c(cc3C(OC3OC5COC(C)OC5C(O)C3O)C3COC(=O)C23)OCO4)cc(OC)c1O
Eugenol,-1.56,C=CCc1ccc(O)c(OC)c1
Fenarimol,-4.38,OC(c1ccc(Cl)cc1)(c1cncnc1)c1ccccc1Cl
Fenfuram,-3.3,Cc1occc1C(=O)Nc1ccccc1
Fenitrothion,-4.04,COP(=S)(OC)Oc1ccc([N+](=O)[O-])c(C)c1
Fenothiocarb,-3.927,CN(C)C(=O)SCCCCOc1ccccc1
Fenoxycarb,-4.7,CCOC(=O)NCCOc1ccc(Oc2ccccc2)cc1
Fenpropathrin,-6.025,CC1(C)C(C(=O)OC(C#N)c2cccc(Oc3ccccc3)c2)C1(C)C
fensulfothion,-2.3,CCOP(=S)(OCC)Oc1ccc(S(C)=O)cc1
Fenthion,-4.57,COP(=S)(OC)Oc1ccc(SC)c(C)c1
Fenuron,-1.6,CN(C)C(=O)Nc1ccccc1
fluconazole,-1.8,OC(Cn1cncn1)(Cn1cncn1)c1ccc(F)cc1F
Flucythrinate,-6.876,CC(C)C(C(=O)OC(C#N)c1cccc(Oc2ccccc2)c1)c1ccc(OC(F)F)cc1
Flucytosine,-0.972,Nc1nc(=O)[nH]cc1F
Fludrocortisone,-3.43,CC12CCC(=O)C=C1CCC1C3CCC(O)(C(=O)CO)C3(C)CC(O)C12F
Flumethasone,-5.613,CC1CC2C3CC(F)C4=CC(=O)C=CC4(C)C3(F)C(O)CC2(C)C1(O)C(=O)CO
Flumetralin,-6.78,CCN(Cc1c(F)cccc1Cl)c1c([N+](=O)[O-])cc(C(F)(F)F)cc1[N+](=O)[O-]
Fluometuron,-3.43,CN(C)C(=O)Nc1cccc(C(F)(F)F)c1
Fluoranthene,-6,c1ccc2c(c1)-c1cccc3cccc-2c13
Fluorene ,-5,c1ccc2c(c1)Cc1ccccc1-2
Fluorobenzene,-1.8,Fc1ccccc1
Fluoromethalone,-4.099,CC(=O)C1(O)CCC2C3CC(C)C4=CC(=O)C=CC4(C)C3(F)C(O)CC21C
Fluorometuron,-3.32,CN(C)C(=O)Nc1cccc(C(F)(F)F)c1
Fluridone,-4.445,Cn1cc(-c2ccccc2)c(=O)c(-c2cccc(C(F)(F)F)c2)c1
Flurochloridone,-4.047,O=C1C(Cl)C(CCl)CN1c1cccc(C(F)(F)F)c1
Flutriafol,-3.37,OC(Cn1cncn1)(c1ccc(F)cc1)c1ccccc1F
Fluvalinate,-8.003,CC(C)C(Nc1ccc(C(F)(F)F)cc1Cl)C(=O)OC(C#N)c1cccc(Oc2ccccc2)c1
Formetanate,-2.34,CNC(=O)Oc1cccc(N=CN(C)C)c1
Formothion,-1.995,COP(=S)(OC)SCC(=O)N(C)C=O
Fructose,0.64,OCC1OC(O)(CO)C(O)C1O
Furane,-0.82,c1ccoc1
Furfural,-0.1,O=Cc1ccco1
gentisin,-2.943,COC1=CC2OC3C=CC(O)=CC3C(=O)C2C(O)=C1
Glafenine,-4.571,O=C(OCC(O)CO)c1ccccc1Nc1ccnc2cc(Cl)ccc12
glucose,0.74,OCC1OC(O)C(O)C(O)C1O
Glutethimide,-2.337,CCC1(c2ccccc2)CCC(=O)NC1=O
Glycerol,1.12,OCC(O)CO
Glyceryl triacetate,-0.6,CC(=O)OCC(COC(C)=O)OC(C)=O
Guaiacol,-1.96,COc1ccccc1O
guanine,-3.583,Nc1nc2[nH]cnc2c(=O)[nH]1
halothane,-1.71,FC(F)(F)C(Cl)Br
hematein,-2.7,O=C1C=C2CC3(O)COc4c(ccc(O)c4O)C3=C2C=C1O
Heptachlor,-6.317,ClC1=C(Cl)C2(Cl)C3C(Cl)C=CC3C1(Cl)C2(Cl)Cl
Heptane,-4.53,CCCCCCC
"Hexachloro-1,3-butadiene",-4.92,ClC(Cl)=C(Cl)C(Cl)=C(Cl)Cl
Hexachloroethane,-3.67,ClC(Cl)(Cl)C(Cl)(Cl)Cl
hexacosane,-8.334,CCCCCCCCCCCCCCCCCCCCCCCCCC
Hexadecane,-8.4,CCCCCCCCCCCCCCCC
Hexamethylbenzene,-5.23,Cc1c(C)c(C)c(C)c(C)c1C
Hexane ,-3.84,CCCCCC
Hexestrol,-4.43,CCC(c1ccc(O)cc1)C(CC)c1ccc(O)cc1
Hexylbenzene ,-5.21,CCCCCCc1ccccc1
hydantoin,-0.4,O=C1CNC(=O)N1
hydrazobenzene,-2.92,c1ccc(NNc2ccccc2)cc1
hydrobenzoin,-1.93,OC(c1ccccc1)C(O)c1ccccc1
hydrochlorothiazide,-2.63,NS(=O)(=O)c1cc2c(cc1Cl)NCNS2(=O)=O
Hydrocortisone ,-3.09,CC12CCC(=O)C=C1CCC1C2C(O)CC2(C)C1CCC2(O)C(=O)CO
Hydrocortisone 21-acetate,-4.88,CC(=O)OCC(=O)C1(O)CCC2C3CCC4=CC(=O)CCC4(C)C3C(O)CC21C
hydroxychlordene,-5.46,OC1C=CC2C1C1(Cl)C(Cl)=C(Cl)C2(Cl)C1(Cl)Cl
Hydroxyprogesterone-17a,-3.817,CC(=O)C1(O)CCC2C3CCC4=CC(=O)CCC4(C)C3CCC21C
Hypoxanthine,-2.296,O=c1[nH]cnc2nc[nH]c12
Indan,-3.04,c1ccc2c(c1)CCC2
Indapamide,-3.586,CC1Cc2ccccc2N1NC(=O)c1ccc(Cl)c(S(N)(=O)=O)c1
indazole,-2.16,c1ccc2[nH]ncc2c1
Indole,-1.52,c1ccc2[nH]ccc2c1
indoline,-1.04,c1ccc2c(c1)CCN2
Inosine,-1.23,OCC1OC(n2cnc3c(O)ncnc32)C(O)C1O
Iodobenzene,-3.01,Ic1ccccc1
Iodoethane,-1.6,CCI
Iodofenphos,-6.62,COP(=S)(OC)Oc1cc(Cl)c(I)cc1Cl
Iodomethane,-1,CI
Ioxynil,-3.61,N#Cc1cc(I)c(O)c(I)c1
Ipazine,-3.785,CCN(CC)c1nc(Cl)nc(NC(C)C)n1
Isazofos,-3.658,CCOP(=S)(OCC)Oc1nc(Cl)n(C(C)C)n1
Isobutyl acetate,-1.21,CC(=O)OCC(C)C
Isobutyl formate,-1.01,CC(C)COC=O
Isobutylbenzene,-4.12,CC(C)Cc1ccccc1
isocarbamid,-2.15,CC(C)CNC(=O)N1CCNC1=O
Isocarboxazid,-2.461,Cc1cc(C(=O)NNCc2ccccc2)no1
Isofenphos,-4.194,CCOP(=S)(NC(C)C)Oc1ccccc1C(=O)OC(C)C
isoguanine,-3.401,Nc1nc(O)nc2nc[nH]c12
Isonazid,0.009,NNC(=O)c1ccncc1
Isopentyl acetate,-1.92,CC(=O)OCCC(C)C
Isopentyl formate,-1.52,CC(C)CCOC=O
isophorone,-1.06,CC1=CC(=O)CC(C)(C)C1
Isoprocarb,-2.863,CNC(=O)Oc1ccccc1C(C)C
Isopropalin,-6.49,CCCN(CCC)c1c([N+](=O)[O-])cc(C(C)C)cc1[N+](=O)[O-]
Isopropyl acetate,-0.55,CC(=O)OC(C)C
Isopropyl formate,-0.63,CC(C)OC=O
Isopropylbenzene ,-3.27,CC(C)c1ccccc1
Isoproturon,-3.536,CC(C)c1ccc(NC(=O)N(C)C)cc1
Isoquinoline,-1.45,c1ccc2cnccc2c1
karbutilate,-2.93,CN(C)C(=O)Nc1cccc(OC(=O)NC(C)(C)C)c1
kebuzone,-3.27,CC(=O)CCC1C(=O)N(c2ccccc2)N(c2ccccc2)C1=O
Kepone,-5.259,O=C1C2(Cl)C3(Cl)C4(Cl)C(Cl)(Cl)C5(Cl)C3(Cl)C1(Cl)C5(Cl)C24Cl
Khellin,-3.021,COc1c2occc2c(OC)c2c(=O)cc(C)oc12
Lactose,-0.244,OCC1OC(OC2C(CO)OC(O)C(O)C2O)C(O)C(O)C1O
L-arabinose,0.39,OC1COC(O)C(O)C1O
Lenacil,-4.594,O=c1[nH]c2c(c(=O)n1C1CCCCC1)CCC2
linalool,-1.99,C=CC(C)(O)CCC=C(C)C
Lindane,-4.64,ClC1C(Cl)C(Cl)C(Cl)C(Cl)C1Cl
Linuron,-3.592,CON(C)C(=O)Nc1ccc(Cl)c(Cl)c1
Lorazepam,-3.604,O=C1Nc2ccc(Cl)cc2C(c2ccccc2Cl)=NC1O
Lovastatin,-6.005,CCC(C)C(=O)OC1CC(C)C=C2C=CC(C)C(CCC3CC(O)CC(=O)O3)C21
Malathion,-3.37,CCOC(=O)CC(SP(=S)(OC)OC)C(=O)OCC
Malonic acid diethylester,-0.82,CCOC(=O)CC(=O)OCC
Maltose,0.358,OCC1OC(OC2C(CO)OC(O)C(O)C2O)C(O)C(O)C1O
mannitol,0.06,OCC(O)C(O)C(O)C(O)CO
m-Chloroaniline,-1.37,Nc1cccc(Cl)c1
m-Chlorobromobenzene,-3.21,Clc1cccc(Br)c1
m-Chloroiodobenzene,-3.55,Clc1cccc(I)c1
m-Chloronitrobenzene ,-2.77,O=[N+]([O-])c1cccc(Cl)c1
Mebendazole,-3.88,COC(=O)Nc1nc2ccc(C(=O)c3ccccc3)cc2[nH]1
Mecarbam,-2.518,CCOC(=O)N(C)C(=O)CSP(=S)(OCC)OCC
meconin,-1.899,COC1=C(OC)C2C(=O)OCC2C=C1
Medrogestone,-5.27,CC(=O)C1(C)CCC2C3C=C(C)C4=CC(=O)CCC4(C)C3CCC21C
Mefenacet,-4.873,CN(C(=O)COc1nc2ccccc2s1)c1ccccc1
Mefluidide,-3.24,CC(=O)Nc1cc(NS(=O)(=O)C(F)(F)F)c(C)cc1C
megestrol acetate,-5.35,CC(=O)OC1(C(C)=O)CCC2C3C=C(C)C4=CC(=O)CCC4(C)C3CCC21C
Menadione,-3.03,CC1=CC(=O)c2ccccc2C1=O
menthol,-2.53,CC1CCC(C(C)C)C(O)C1
Menthone,-2.35,CC1CCC(C(C)C)C(=O)C1
Meprobamate,-1.807,CCCC(C)(COC(N)=O)COC(N)=O
mercaptobenzothiazole,-3.18,Sc1nc2ccccc2s1
metalaxyl,-1.601,COCC(=O)N(c1c(C)cccc1C)C(C)C(=O)OC
Methane,-0.9,C
Methanol,1.57,CO
Methaqualone,-2.925,Cc1ccccc1-n1c(C)nc2ccccc2c1=O
metharbital,-2.23,CCC1(CC)C(=O)NC(=O)N(C)C1=O
Methazole,-2.82,Cn1c(=O)on(-c2ccc(Cl)c(Cl)c2)c1=O
Methocarbamol,-0.985,COc1ccccc1OCC(O)COC(N)=O
Methoprene,-5.19,COC(C)(C)CCCC(C)CC=CC(C)=CC(=O)OC(C)C
Methoproptryne,-2.928,COCCCNc1nc(NC(C)C)nc(SC)n1
Methoxsalen,-3.664,COc1c2occc2cc2ccc(=O)oc12
Methoxychlor,-6.89,COc1ccc(C(c2ccc(OC)cc2)C(Cl)(Cl)Cl)cc1
Methyl acetate,0.46,COC(C)=O
Methyl acrylate,-0.22,C=CC(=O)OC
Methyl benzoate ,-1.85,COC(=O)c1ccccc1
Methyl butyl ether ,-0.99,CCCCOC
Methyl butyrate,-0.82,CCCOC(=O)CC
Methyl decanoate,-4.69,CCCCCCCCCC(=O)OC
Methyl formate,0.58,COC=O
methyl gallate,-1.24,COC(=O)c1cc(O)c(O)c(O)c1
Methyl hexanoate,-1.87,CCCCCC(=O)OC
Methyl hydrazine,1.34,CNN
methyl laurate,-4.69,CCCCCCCCCCCC(=O)OC
methyl nicotinate,-0.46,COC(=O)c1cccnc1
Methyl nonanoate,-3.38,CCCCCCCCC(=O)OC
Methyl octanoate,-3.17,CCCCCCCC(=O)OC
Methyl pentanoate,-1.36,CCCC(=O)OCC
Methyl propionate,-0.14,CCC(=O)OC
Methyl propyl ether ,-0.39,CCCOC
Methyl t-butyl ether ,-0.24,COC(C)(C)C
Methylcyclohexane ,-3.85,CC1CCCCC1
Methylcyclopentane,-3.3,CC1CCCC1
Methyldymron,-3.35,CN(C(=O)NC(C)(C)c1ccccc1)c1ccccc1
Methylparaben,-1.827,COC(=O)c1ccc(O)cc1
methyltestosterone acetate,-5.284,CC(=O)OC1(C)CCC2C3CCC4=CC(=O)CCC4(C)C3CCC21C
methylthiouracil,-2.436,Cc1cc(=O)[nH]c(=S)[nH]1
Metolachlor,-2.73,CCc1cccc(C)c1N(C(=O)CCl)C(C)COC
Metolcarb,-1.803,CNC(=O)Oc1ccccc1
Metoxuron,-2.564,COc1ccc(NC(=O)N(C)C)cc1Cl
Metranidazole,-1.26,Cc1ncc([N+](=O)[O-])n1CCO
Metribuzin,-2.253,CSc1nnc(C(C)(C)C)c(=O)n1N
Metronidazole,-1.22,Cc1ncc([N+](=O)[O-])n1CCO
m-Fluorobromobenzene,-2.67,Fc1cccc(Br)c1
Minoxidil,-1.989,Nc1cc(N2CCCCC2)nc(N)[n+]1[O-]
Mirex,-6.8,ClC1(Cl)C2(Cl)C3(Cl)C4(Cl)C(Cl)(Cl)C5(Cl)C3(Cl)C1(Cl)C5(Cl)C24Cl
m-Methylaniline,-0.85,Cc1cccc(N)c1
m-Nitroaniline,-2.19,Nc1cccc([N+](=O)[O-])c1
m-Nitrophenol,-1.01,O=[N+]([O-])c1cccc(O)c1
m-Nitrotoluene,-2.44,Cc1cccc([N+](=O)[O-])c1
Monolinuron,-2.57,CON(C)C(=O)Nc1ccc(Cl)cc1
Monotropitoside,-0.742,COC(=O)c1ccccc1OC1OC(COC2OCC(O)C(O)C2O)C(O)C(O)C1O
Monuron,-2.89,CN(C)C(=O)Nc1ccc(Cl)cc1
Morin,-3.083,O=c1c(O)c(-c2ccc(O)cc2O)oc2cc(O)cc(O)c12
m-Xylene ,-2.82,Cc1cccc(C)c1
"N,N-Diethylaniline",-3.03,CCN(CC)c1ccccc1
"N,N-Dimethylacetamide",1.11,CC(=O)N(C)C
"N,N-Dimethylaniline",-1.92,CN(C)c1ccccc1
Naled,-2.28,COP(=O)(OC)OC(Br)C(Cl)(Cl)Br
Napropamide,-3.57,CCN(CC)C(=O)C(C)Oc1cccc2ccccc12
Napthacene,-8.6,c1ccc2cc3cc4ccccc4cc3cc2c1
Napthalene,-3.6,c1ccc2ccccc2c1
Neburon,-4.77,CCCCN(C)C(=O)Nc1ccc(Cl)c(Cl)c1
Nerol,-2.46,CC(C)=CCC/C(C)=C\CO
N-Ethylaniline,-1.7,CCNc1ccccc1
Niclosamide,-4.7,O=C(Nc1ccc([N+](=O)[O-])cc1Cl)c1cc(Cl)ccc1O
nicotinamide,0.61,NC(=O)c1cccnc1
nifuroxime,-2.19,O=[N+]([O-])c1ccc(C=NO)o1
Nimetazepam,-3.796,CN1C(=O)CN=C(c2ccccc2)c2cc([N+](=O)[O-])ccc21
Niridazole,-3.22,O=C1NCCN1c1ncc([N+](=O)[O-])s1
Nitramine,-3.561,CCN(CC)c1c([N+](=O)[O-])cc(C(F)(F)F)c(N)c1[N+](=O)[O-]
Nitrapyrin,-3.76,Clc1cccc(C(Cl)(Cl)Cl)n1
Nitrazepam,-3.796,O=C1CN=C(c2ccccc2)c2cc([N+](=O)[O-])ccc2N1
Nitrobenzene,-1.8,O=[N+]([O-])c1ccccc1
Nitroethane,-0.22,CC[N+](=O)[O-]
Nitrofen,-5.46,O=[N+]([O-])c1ccc(Oc2ccc(Cl)cc2Cl)cc1
nitrofurantoin,-3.38,O=C1CN(N=Cc2ccc([N+](=O)[O-])o2)C(=O)N1
nitroglycerin,-2.22,O=[N+]([O-])OCC(CO[N+](=O)[O-])O[N+](=O)[O-]
Nitromethane,0.26,C[N+](=O)[O-]
N-Methylaniline ,-1.28,CNc1ccccc1
Nonane,-5.88,CCCCCCCCC
norbormide,-3.931,O=C1NC(=O)C2C3C(C(O)(c4ccccc4)c4ccccn4)=CC(C3=C(c3ccccc3)c3ccccn3)C12
Norea,-3.171,CN(C)C(=O)NC1CC2CC1C1CCCC21
norethindrone acetate,-4.8,C#CC1(OC(C)=O)CCC2C3CCC4=CC(=O)CCC4C3CCC21C
Norethisterone,-4.57,C#CC1(O)CCC2C3CCC4=CC(=O)CCC4(O)C3CCC21C
norflurazon,-4.046,CNc1cnn(-c2cccc(C(F)(F)F)c2)c(=O)c1Cl
"O,P'-DDD",-6.51,Clc1ccc(C(c2ccccc2Cl)C(Cl)Cl)cc1
o-Aminophenol,-0.72,Nc1ccccc1O
o-Chloroaniline,-1.52,Nc1ccccc1Cl
o-Chlorobromobenzene,-3.19,Clc1ccccc1Br
o-Chloroiodobenzene,-3.54,Clc1ccccc1I
o-Chloronitrobenzene,-2.55,O=[N+]([O-])c1ccccc1Cl
Octane,-5.24,CCCCCCCC
O-Ethyl carbamate,0.85,CCOC(N)=O
o-Fluorobromobenzene,-2.7,Fc1ccccc1Br
o-Hydroxybenzamide,-1.82,NC(=O)c1ccccc1O
o-Methoxyphenol,-1.96,COc1ccccc1O
o-Nitroaniline,-1.96,Nc1ccccc1[N+](=O)[O-]
o-Nitroanisole,-1.96,COc1ccccc1[N+](=O)[O-]
o-Nitrophenol,-1.74,O=[N+]([O-])c1ccccc1O
o-Nitrotoluene,-2.33,Cc1ccccc1[N+](=O)[O-]
oryzalin,-5.16,CCCN(CCC)c1c([N+](=O)[O-])cc(S(N)(=O)=O)cc1[N+](=O)[O-]
osthole,-4.314,COc1ccc2ccc(=O)oc2c1CC=C(C)C
o-Toluidine,-2.21,Cc1ccccc1N
Oxadiazon,-5.696,CC(C)Oc1cc(-n2nc(C(C)(C)C)oc2=O)c(Cl)cc1Cl
Oxamyl,0.106,CNC(=O)ON=C(SC)C(=O)N(C)C
Oxycarboxin,-2.281,CC1=C(C(=O)Nc2ccccc2)S(=O)(=O)CCO1
o-Xylene ,-2.8,Cc1ccccc1C
"p,p'-Biphenyldiamine ",-2.7,Nc1ccc(-c2ccc(N)cc2)cc1
"P,P'-DDD",-7.2,Clc1ccc(C(c2ccc(Cl)cc2)C(Cl)Cl)cc1
"P,P'-DDE",-6.9,ClC(Cl)=C(c1ccc(Cl)cc1)c1ccc(Cl)cc1
p-Aminophenol,-0.8,Nc1ccc(O)cc1
parabanic acid,-0.4,O=C1NC(=O)C(=O)N1
Parathion,-4.66,CCOP(=S)(OCC)Oc1ccc([N+](=O)[O-])cc1
p-benzidine,-2.7,Nc1ccc(-c2ccc(N)cc2)cc1
p-Bromoacetanilide,-3.083,CC(=O)Nc1ccc(Br)cc1
p-Bromoiodobenzene,-4.56,Brc1ccc(I)cc1
p-Chloroacetanilide,-2.843,CC(=O)Nc1ccc(Cl)cc1
p-Chloroaniline,-1.66,Nc1ccc(Cl)cc1