name,logS,smiles
p-Chlorobromobenzene,-3.63,Clc1ccc(Br)cc1
p-Chloroiodobenzene,-4.03,Clc1ccc(I)cc1
p-Chloronitrobenzene,-2.92,O=[N+]([O-])c1ccc(Cl)cc1
p-Cresol,-0.73,Cc1ccc(O)cc1
Pebulate,-3.53,CCCCN(CC)C(=O)SCCC
Pencycuron,-5.915,O=C(Nc1ccccc1)N(Cc1ccc(Cl)cc1)C1CCCC1
Pentachlorobenzene,-5.65,Clc1cc(Cl)c(Cl)c(Cl)c1Cl
Pentachloroethane,-2.6,ClC(Cl)C(Cl)(Cl)Cl
Pentachlorophenol,-4.28,Oc1c(Cl)c(Cl)c(Cl)c(Cl)c1Cl
Pentamethylbenzene,-4,Cc1cc(C)c(C)c(C)c1C
Pentane,-3.18,CCCCC
Pentobarbital,-2.39,CCCC(C)C1(CC)C(=O)NC(=O)NC1=O
Pentyl acetate,-1.89,CCCCCOC(C)=O
Pentyl propanoate,-2.25,CCCCC(=O)OCC
Pentylbenzene,-4.64,CCCCCc1ccccc1
Pentylcyclopentane,-6.08,CCCCCC1CCCC1
Perfluidone,-3.8,Cc1cc(S(=O)(=O)c2ccccc2)ccc1NS(=O)(=O)C(F)(F)F
Permethrin,-6.291,CC1(C)C(C=C(Cl)Cl)C1C(=O)OCc1cccc(Oc2ccccc2)c1
Perylene,-8.804,c1cc2cccc3c4cccc5cccc(c(c1)c23)c54
p-Fluoroacetanilide,-1.78,CC(=O)Nc1ccc(F)cc1
Phenanthrene,-5.26,c1ccc2c(c1)ccc1ccccc12
phenanthridine,-2.78,c1ccc2c(c1)cnc1ccccc12
Phenetole,-2.33,CCOc1ccccc1
Phenmedipham,-4.805,COC(=O)Nc1cccc(OC(=O)Nc2cccc(C)c2)c1
phenobarbital,-2.322,CCC1(c2ccccc2)C(=O)NC(=O)NC1=O
Phenol,0,Oc1ccccc1
phenolphthalein,-2.9,O=C1OC(c2ccc(O)cc2)(c2ccc(O)cc2)c2ccccc21
phenothrin,-5.24,CC(C)=CC1C(C(=O)OCc2cccc(Oc3ccccc3)c2)C1(C)C
phenylbutazone,-3.81,CCCCC1C(=O)N(c2ccccc2)N(c2ccccc2)C1=O
Phenylhydrazine,0.07,NNc1ccccc1
Phenylmethanol,-0.4,OCc1ccccc1
Phenylthiourea,-1.77,NC(=S)Nc1ccccc1
Phenytoin,-4.097,O=C1NC(=O)C(c2ccccc2)(c2ccccc2)N1
Phorate,-4.11,CCOP(=S)(OCC)SCSCC
Phosalone,-5.233,CCOP(=S)(OCC)SCn1c(=O)oc2cc(Cl)ccc21
Phoxim,-4.862,CCOP(=S)(OCC)ON=C(C#N)c1ccccc1
phthalamide,-2.932,O=C1NC(=O)C2C=CC=CC12
phthalimide,-2.61,O=C1NC(=O)c2ccccc21
Phthalonitrile,-2.38,N#Cc1ccccc1C#N
p-Hydroxyacetanilide,-1.03,CC(=O)Nc1ccc(O)cc1
p-Hydroxybenzaldehyde ,-0.96,O=Cc1ccc(O)cc1
Picene,-7.87,c1ccc2c(c1)ccc1c2ccc2c3ccccc3ccc21
Piperine,-3.46,O=C(C=CC=Cc1ccc2c(c1)OCO2)N1CCCCC1
piperonal,-1.63,O=Cc1ccc2c(c1)OCO2
Piperophos,-4.15,CCCOP(=S)(OCCC)SCC(=O)N1CCCCC1C
Pirimicarb,-1.95,Cc1nc(N(C)C)nc(OC(=O)N(C)C)c1C
piroxicam,-4.16,CN1C(C(=O)Nc2ccccn2)=C(O)c2ccccc2S1(=O)=O
p-Methoxybenzaldehyde,-1.49,COc1ccc(C=O)cc1
p-Methylaniline ,-1.21,Cc1ccc(N)cc1
p-Nitroaniline,-2.37,Nc1ccc([N+](=O)[O-])cc1
p-Nitroanisole,-2.41,COc1ccc([N+](=O)[O-])cc1
p-Nitrophenol,-0.74,O=[N+]([O-])c1ccc(O)cc1
p-Nitrotoluene,-2.49,Cc1ccc([N+](=O)[O-])cc1
p-Phenylphenol,-3.48,Oc1ccc(-c2ccccc2)cc1
Prasterone,-4.12,CC12CCC3C(CC=C4CC(O)CCC43C)C1CCC2=O
Prednisolone,-3.18,CC12C=CC(=O)C=C1CCC1C2C(O)CC2(C)C1CCC2(O)C(=O)CO
prednisolone acetate,-4.37,CC(=O)OCC(=O)C1(O)CCC2C3CCC4=CC(=O)C=CC4(C)C3C(O)CC21C
pregnenolone,-4.65,CC(=O)C1CCC2C3CC=C4CC(O)CCC4(C)C3CCC12C
probarbital,-2.21,CCC1(C(C)C)C(=O)NC(=O)NC1=O
Procymidone,-4.8,CC12CC1(C)C(=O)N(c1cc(Cl)cc(Cl)c1)C2=O
Progesterone,-4.42,CC(=O)C1CCC2C3CCC4=CC(=O)CCC4(C)C3CCC12C
Prometon,-2.478,COc1nc(NC(C)C)nc(NC(C)C)n1
Prometryn,-4.1,CSc1nc(NC(C)C)nc(NC(C)C)n1
propachlor,-2.48,CC(C)N(C(=O)CCl)c1ccccc1
Propane,-1.94,CCC
Propanil,-3,CCC(=O)Nc1ccc(Cl)c(Cl)c1
Propazine,-4.43,CC(C)Nc1nc(Cl)nc(NC(C)C)n1
Propetamphos,-3.408,CCNP(=S)(OC)OC(C)=CC(=O)OC(C)C
Propiconazole,-3.493,CCCC1COC(Cn2cncn2)(c2ccc(Cl)cc2Cl)O1
Propionaldehyde,0.58,CCC=O
Propionitrile,0.28,CCC#N
Propoxur,-2.05,CNC(=O)Oc1ccccc1OC(C)C
Propyl acetate,-0.72,CCCOC(C)=O
Propyl butyrate,-1.92,CCCC(=O)OC
Propyl formate,-0.49,CCCOC=O
Propyl propanoate,-1.34,CCCCC(=O)OC
Propylbenzene ,-3.37,CCCc1ccccc1
Propylcyclopentane,-4.74,CCCC1CCCC1
Propylene,-1.08,C=CC
Propylisopropylether,-1.34,CCCOC(C)C
Propyne,-0.41,C#CC
p-t-Butylphenol,-2.41,CC(C)(C)c1ccc(O)cc1
Pteridine,0.02,c1cnc2ncncc2n1
p-terphenyl,-7.11,c1ccc(-c2ccc(-c3ccccc3)cc2)cc1
p-Toluenesulfonamide ,-1.74,Cc1ccc(S(N)(=O)=O)cc1
p-Xylene ,-2.77,Cc1ccc(C)cc1
pyracarbolid,-2.56,CC1=C(C(=O)Nc2ccccc2)CCCO1
Pyrazinamide,-0.667,NC(=O)c1cnccn1
Pyrazon,-2.878,Nc1cnn(-c2ccccc2)c(=O)c1Cl
Pyrene,-6.176,c1cc2ccc3cccc4ccc(c1)c2c34
Pyridazine,1.1,c1ccnnc1
Pyridine,0.76,c1ccncc1
Pyrimidine,1.1,c1cncnc1
Pyrolan,-2.09,Cc1cc(OC(=O)N(C)C)n(-c2ccccc2)n1
Quinethazone,-3.29,CCC1NC(=O)c2cc(S(N)(=O)=O)c(Cl)cc2N1
Quinoline,-1.3,c1ccc2ncccc2c1
Quinonamid,-5.03,O=C(CC(Cl)Cl)NC1=C(Cl)C(=O)c2ccccc2C1=O
Quintozene,-5.82,O=[N+]([O-])c1c(Cl)c(Cl)c(Cl)c(Cl)c1Cl
Raffinose,-0.41,OCC1OC(OCC2OC(OC3(CO)OC(CO)C(O)C3O)C(O)C(O)C2O)C(O)C(O)C1O
Reposal,-2.696,CCC1(C2=CCC3CCC2C3)C(=O)NC(=O)NC1=O
Reverse Transcriptase inhibitor 1,-2.62,CCN1c2ncccc2C(=O)N(C)c2cccnc21
rhodanine,-1.77,O=C1CSC(=S)N1
Riboflavin,-3.685,Cc1cc2nc3c(=O)[nH]c(=O)nc-3n(CC(O)C(O)C(O)CO)c2cc1C
Risocaine,-2.452,CCCOC(=O)c1ccc(N)cc1
Ronnel,-5.72,COP(=S)(OC)Oc1cc(Cl)c(Cl)cc1Cl
Rotenone,-4.42,C=C(C)C1Cc2c(ccc3c2OC2COc4cc(OC)c(OC)cc4C2C3=O)O1
Rovral,-4.376,CC(C)NC(=O)N1CC(=O)N(c2cc(Cl)cc(Cl)c2)C1=O
RTI 10,-3.672,CN1C(=O)c2cccnc2Oc2ccccc21
RTI 11,-3.928,Cc1ccc2c(c1)C(=O)N(C)c1cc(N)ccc1O2
RTI 12,-4.114,CCN1c2ncccc2C(=O)N(C)c2ccc(Cl)nc21
RTI 13,-4.207,CCN1c2ncccc2C(=O)Nc2c(C(F)(F)F)cc(C)nc21
RTI 15,-4.554,CCN1c2ncccc2C(=O)Nc2c(C)cc(C)nc21
RTI 16,-4.634,CCN1c2ncccc2C(=S)N(C)c2cccnc21
RTI 17,-4.706,CCN1c2ccccc2N(C)C(=S)c2cccnc21
RTI 19,-4.749,CCN1c2ccccc2C(=O)N(C)c2ccccc21
RTI 2,-2.86,CCN1C(=O)c2cccnc2N(CC)c2ncccc21
RTI 20,-4.799,O=C1c2ccccc2Cc2ccccc2N1CCF
RTI 22,-4.871,CCN1c2cc(N(C)C)cc(C)c2NC(=O)c2cccnc21
RTI 23,-5.153,CCN1c2cc(OC)cc(C)c2NC(=O)c2cccnc21
RTI 24,-5.36,CCN1c2cc(Cl)ccc2NC(=O)c2cccnc21
RTI 3,-3.043,Cc1ccc2c(c1)Oc1ncc(N)cc1C(=O)N2C
RTI 5,-3.324,CCN1c2ccccc2N(C)C(=O)c2cccnc21
RTI 6,-3.36,CCN1c2nc(N(C)CCO)ccc2NC(=O)c2cccnc21
RTI 7,-3.535,O=C1c2ccccc2Cc2ccccc2N1CCF
RTI 9,-3.68,CCN1C(=O)c2ccccc2Oc2ccccc21
Salicin,-0.85,OCc1ccccc1OC1OC(CO)C(O)C(O)C1O
Salicylamide,-1.836,NC(=O)c1ccccc1O
salicylanilide,-3.59,O=C(Nc1ccccc1)c1ccccc1O
Santonin,-3.09,CC1=C2C3OC(=O)C(C)C3CCC2(C)C=CC1=O
Secobarbital,-2.356,C=CCC1(C(C)CCC)C(=O)NC(=O)NC1=O
Siduron,-4.11,CC1CCCCC1NC(=O)Nc1ccccc1
simazine,-4.55,CCNc1nc(Cl)nc(NCC)n1
Simetryn,-2.676,CSc1nc(N(C)C)nc(N(C)C)n1
Sorbitol,1.09,OCC(O)C(O)C(O)C(O)CO
"Sparsomycin (3,8mg/ml)",-1.981,CSCS(=O)CC(CO)NC(=O)C=Cc1c(C)[nH]c(=O)[nH]c1=O
stadacaine,-3.84,CCCCOc1ccc(C(=O)OCC)c(N(CC)CC)c1
Stanolone,-4.743,CC12CCC3C(CCC4CC(=O)CCC43C)C1CCC2O
Stirofos,-4.522,COP(=O)(OC)OC(=CCl)c1cc(Cl)c(Cl)cc1Cl
Styrene,-2.82,C=Cc1ccccc1
styrene oxide,-1.6,c1ccc(C2CO2)cc1
Succinimide,0.3,O=C1CCC(=O)N1
Sucrose,0.79,OCC1OC(OC2(CO)OC(CO)C(O)C2O)C(O)C(O)C1O
sulfaguanidine,-1.99,N=C(N)NS(=O)(=O)c1ccc(N)cc1
Sulfallate,-3.39,C=C(Cl)CSC(=S)N(CC)CC
Sulfanilamide,-1.34,Nc1ccc(S(N)(=O)=O)cc1
Talbutal,-2.016,C=CCC1(C(C)CC)C(=O)NC(=O)NC1=O
t-Butylbenzene ,-3.66,CC(C)(C)c1ccccc1
t-Crotonaldehyde,0.32,C/C=C/C=O
TEFLUBENZURON,-7.28,O=C(NC(=O)c1c(F)cccc1F)Nc1cc(Cl)c(F)c(Cl)c1F
Terbacil,-2.484,Cc1[nH]c(=O)n(C(C)(C)C)c(=O)c1Cl
Terbufos,-4.755,CCOP(=S)(OCC)SCSC(C)(C)C
Terbumeton,-3.239,CCNc1nc(NC(C)(C)C)nc(OC)n1
Terbutryn,-4,CCNc1nc(NC(C)(C)C)nc(SC)n1
Testosterone,-4.02,CC12CCC(=O)C=C1CCC1C2CCC2(C)C(O)CCC12
testosterone acetate,-5.184,CC(=O)OC1CCC2C3CCC4=CC(=O)CCC4(C)C3CCC12C
testosterone propionate,-5.37,CCC(=O)OC1CCC2C3CCC4=CC(=O)CCC4(C)C3CCC12C
Tetrabromomethane,-3.14,BrC(Br)(Br)Br
Tetrachloroethylene,-2.54,ClC(Cl)=C(Cl)Cl
tetrachloroguaiacol,-4.02,COc1c(O)c(Cl)c(Cl)c(Cl)c1Cl
Tetrachloromethane,-2.31,ClC(Cl)(Cl)Cl
Tetradecane,-7.96,CCCCCCCCCCCCCC
Tetrafluthrin,-7.321,Cc1c(F)c(F)c(COC(=O)C2C(C=C(Cl)C(F)(F)F)C2(C)C)c(F)c1F
Tetrahydrofurane ,0.49,C1CCOC1
Tetrahydropyran ,-0.03,C1CCOCC1
tetramethylurea,0.94,CN(C)C(=O)N(C)C
Thalidomide,-2.676,O=C1CCC(N2C(=O)c3ccccc3C2=O)C(=O)N1
theobromine,-2.523,Cn1cnc2c1c(=O)[nH]c(=O)n2C
Theophylline,-1.39,Cn1c(=O)c2[nH]cnc2n(C)c1=O
Thiamphenicol,-2.154,CS(=O)(=O)c1ccc(C(O)C(CO)NC(=O)C(Cl)Cl)cc1
thiamylal,-3.46,C=CCC1(C(C)CCC)C(=O)NC(=S)NC1=O
thioanisole,-2.39,CSc1ccccc1
thiofanox,-1.62,CNC(=O)ON=C(CSC)C(C)(C)C
Thiometon,-3.091,CCSCCSP(=S)(OC)OC
thiopental,-3.36,CCCC(C)C1(CC)C(=O)NC(=S)NC1=O
Thiophene,-1.33,c1ccsc1
Thiophenol ,-2.12,Sc1ccccc1
thiouracil,-2.273,O=c1ccnc(S)[nH]1
Thiourea,0.32,NC(N)=S
Thiram,-3.9,CN(C)C(=S)SSC(=S)N(C)C
thymine,-1.506,Cc1c[nH]c(=O)[nH]c1=O
Thymol,-2.22,Cc1ccc(C(C)C)c(O)c1
Toluene ,-2.21,Cc1ccccc1
t-Pentylbenzene,-4.15,CC(C)(C)Cc1ccccc1
"trans-1,4-Dimethylcyclohexane",-4.47,CC1CCC(C)CC1
trans-2-Heptene ,-3.82,C/C=C/CCCC
trans-2-Pentene ,-2.54,C/C=C/CC
Triadimefon,-3.61,CC(C)(C)C(=O)C(Oc1ccc(Cl)cc1)n1cncn1
Triallate,-4.88,CC(C)N(C(=O)SCC(Cl)=C(Cl)Cl)C(C)C
triamcinolone acetonide,-4.31,CC1(C)OC2CC3C4CCC5=CC(=O)C=CC5(C)C4(F)C(O)CC3(C)C2(C(=O)CO)O1
triamcinolone diacetate,-4.13,CC(=O)OCC(=O)C1(O)C(OC(C)=O)CC2C3CCC4=CC(=O)C=CC4(C)C3(F)C(O)CC21C
Triazolam,-4.09,Cc1nnc2n1-c1ccc(Cl)cc1C(c1ccccc1Cl)=NC2
Tribromomethane,-1.91,BrC(Br)Br
Trichlomethiazide,-2.68,NS(=O)(=O)c1cc2c(cc1Cl)NC(C(Cl)Cl)NS2(=O)=O
Trichlorfon,-0.22,COP(=O)(OC)C(O)C(Cl)(Cl)Cl
trichlormethiazide,-2.68,NS(=O)(=O)c1cc2c(cc1Cl)NC(C(Cl)Cl)NS2(=O)=O
Trichloroacetonitrile,-2.168,N#CC(Cl)(Cl)Cl
Trichloroethylene,-1.96,ClC=C(Cl)Cl
Trichloromethane,-1.17,ClC(Cl)Cl
Trichloronate,-5.752,CCOP(=S)(CC)Oc1cc(Cl)c(Cl)cc1Cl
Triclosan,-4.46,Oc1cc(Cl)ccc1Oc1ccc(Cl)cc1Cl
Tricresyl phosphate,-6.01,Cc1ccc(OP(=O)(Oc2cccc(C)c2)Oc2ccccc2C)cc1
Tricyclazole,-2.07,Cc1cccc2sc3nncn3c12
Trietazine,-4.06,CCNc1nc(Cl)nc(N(CC)CC)n1
Triethyl phosphate,0.43,CCOP(=O)(OCC)OCC
Trifluralin,-5.68,CCCN(CCC)c1c([N+](=O)[O-])cc(C(F)(F)F)cc1[N+](=O)[O-]
triforine,-4.19,O=CNC(N1C=CN(C(NC=O)C(Cl)(Cl)Cl)C=C1)C(Cl)(Cl)Cl
Trimazosin,-3.638,COc1cc2c(N)nc(N3CCN(C(=O)OCC(C)(C)O)CC3)nc2c(OC)c1OC
Triphenylene,-6.726,c1ccc2c(c1)c1ccccc1c1ccccc21
tubercidin,-1.95,Nc1ncnc2c1ccn2C1OC(CO)C(O)C1O
uracil,-1.488,O=c1cc[nH]c(=O)[nH]1
Urea,0.96,NC(N)=O
uric acid,-3.93,O=c1[nH]c(=O)c2[nH]c(=O)[nH]c2[nH]1
Valeraldehyde,-0.85,CCCCC=O
vamidothion,1.144,CNC(=O)C(C)SCCSP(=O)(OC)OC
Vinclozolin,-4.925,C=CC1(C)OC(=O)N(c2cc(Cl)cc(Cl)c2)C1=O
Xipamide,-3.79,Cc1cccc(C)c1NC(=O)c1cc(S(N)(=O)=O)c(Cl)cc1O
XMC,-2.581,CNC(=O)Oc1cc(C)cc(C)c1